version 3
run Rayleigh-0-20240329-05:20:42-1208475
attr configname Rayleigh
attr datetime 20240329-05:20:42
attr datetimef 20240329-052042
attr experiment Rayleigh
attr inifile omnetpp.ini
attr iterationvars ""
attr iterationvarsd ""
attr iterationvarsf ""
attr measurement ""
attr network my_simulation3.simulations.My_simulation3_network
attr processid 1208475
attr repetition 0
attr replication #0
attr resultdir results
attr runnumber 0
attr seedset 0
config image-path ../../../omnetpp-6.0.2/samples/inet4.5/images
config **.RayleighChannel.alpha 2
config **.RayleighChannel.systemLoss 0dB
config network my_simulation3.simulations.My_simulation3_network
config *.OBN.distance 100cm
config *.Hub_1.distance 50cm
config *.Hub_2.distance 70cm
config *.Hub_3.distance 90cm
config *.Node_11.distance 20cm
config *.Node_12.distance 40cm
config *.Node_21.distance 60cm
config *.Node_22.distance 80cm
config *.Node_31.distance 100cm
config *.Node_32.distance 120cm

vector 0 My_simulation3_network.Hub_1 PredictionError ETV
vector 1 My_simulation3_network.Hub_2 PredictionError ETV
vector 2 My_simulation3_network.Hub_3 PredictionError ETV
0	1	0	5.3096233479653e-310
0	80	0.01	5.3096233479653e-310
0	81	0.01	23.5
0	82	0.01	57.805255889893
0	83	0.01	85.118713378906
0	84	0.01	24.964752197266
0	85	0.01	71.127166748047
0	86	0.01	14.206726074219
0	87	0.01	79.993263244629
0	88	0.01	87.035507202148
0	89	0.01	70.451736450195
0	90	0.01	37.509704589844
0	91	0.01	9.5454406738281
0	92	0.01	5.6811981201172
0	93	0.01	112.54707336426
0	94	0.01	11.559837341309
0	95	0.01	31.807640075684
0	96	0.01	39.942138671875
0	97	0.01	75.714965820312
0	98	0.01	60.209999084473
0	99	0.01	9.2411575317383
0	100	0.01	61.811851501465
0	101	0.01	18.826133728027
0	102	0.01	20.685905456543
0	103	0.01	51.696235656738
0	104	0.01	71.121810913086
0	105	0.01	14.933227539062
0	106	0.01	16.075309753418
0	107	0.01	65.198913574219
0	108	0.01	59.284393310547
0	109	0.01	20.708053588867
0	110	0.01	91.697395324707
0	111	0.01	61.902313232422
0	112	0.01	42.277770996094
0	113	0.01	40.839309692383
0	114	0.01	44.347793579102
0	115	0.01	50.473892211914
0	116	0.01	25.609588623047
0	117	0.01	71.72038269043
0	118	0.01	24.909301757812
0	119	0.01	96.33186340332
0	120	0.01	16.036392211914
0	121	0.01	12.449966430664
0	122	0.01	6.0004119873047
0	123	0.01	25.794570922852
0	124	0.01	91.465087890625
0	125	0.01	55.576751708984
0	126	0.01	101.07874298096
0	127	0.01	55.51171875
0	128	0.01	1.8348693847656
0	129	0.01	76.496955871582
0	130	0.01	59.080581665039
0	131	0.01	84.167541503906
0	132	0.01	23.917938232422
0	133	0.01	27.105361938477
0	134	0.01	52.043212890625
0	135	0.01	28.433410644531
0	136	0.01	31.860717773438
0	137	0.01	97.874366760254
0	138	0.01	69.000755310059
0	139	0.01	18.336837768555
0	140	0.01	14.10725402832
0	141	0.01	40.027893066406
0	142	0.01	56.707252502441
0	143	0.01	18.307350158691
0	144	0.01	61.900871276855
0	145	0.01	65.439628601074
0	146	0.01	2.6500778198242
0	147	0.01	40.818984985352
0	148	0.01	11.171836853027
0	149	0.01	43.018249511719
0	150	0.01	83.178771972656
0	151	0.01	56.761596679688
0	152	0.01	25.088638305664
0	153	0.01	74.679412841797
0	154	0.01	8.2089462280273
0	155	0.01	77.022132873535
0	156	0.01	27.119239807129
0	157	0.01	38.86116027832
0	158	0.01	22.330093383789
0	159	0.01	31.833976745605
0	160	0.01	62.020637512207
0	161	0.01	80.369125366211
0	162	0.01	8.8978576660156
0	163	0.01	0.081802368164062
0	164	0.01	30.921257019043
0	165	0.01	37.53018951416
0	166	0.01	4.5525283813477
0	167	0.01	43.123031616211
0	168	0.01	37.054702758789
0	169	0.01	15.177154541016
0	170	0.01	54.676216125488
0	171	0.01	26.200378417969
0	172	0.01	78.036659240723
0	173	0.01	46.202758789062
0	174	0.01	87.070243835449
0	175	0.01	79.117858886719
0	176	0.01	51.74919128418
0	177	0.01	20.924293518066
0	178	0.01	19.232139587402
0	179	0.01	73.384246826172
0	180	0.01	23.576110839844
0	181	0.01	90
0	182	0.01	6.1538467407227
0	183	0.01	38.806221008301
0	184	0.01	30.405204772949
0	185	0.01	49.824569702148
0	186	0.01	82.941009521484
0	187	0.01	71.252670288086
0	188	0.01	3.6376495361328
0	189	0.01	15.478317260742
0	190	0.01	37.553749084473
0	191	0.01	59.232795715332
0	192	0.01	45.419609069824
0	193	0.01	19.795669555664
0	194	0.01	64.196128845215
0	195	0.01	45.478736877441
0	196	0.01	58.090606689453
0	197	0.01	29.884819030762
0	198	0.01	56.469650268555
0	199	0.01	35.92578125
0	200	0.01	101.43088531494
0	201	0.01	8.4955139160156
0	202	0.01	57.371704101562
0	203	0.01	65.098495483398
0	204	0.01	45.84504699707
0	205	0.01	51.534599304199
0	206	0.01	4.9244766235352
0	207	0.01	26.366554260254
0	208	0.01	5.3652038574219
0	209	0.01	51.243133544922
0	210	0.01	91.938705444336
0	211	0.01	0.83145904541016
0	212	0.01	29.702095031738
0	213	0.01	67.460021972656
0	214	0.01	5.2507629394531
0	215	0.01	109.88175964355
0	216	0.01	21.950469970703
0	217	0.01	1.6393737792969
0	218	0.01	60.42342376709
0	219	0.01	67.176261901855
0	220	0.01	6.4711303710938
0	221	0.01	80.133972167969
0	222	0.01	66.279922485352
0	223	0.01	7.1514739990234
0	224	0.01	1.4907455444336
0	225	0.01	20.48853302002
0	226	0.01	47.732955932617
0	227	0.01	44.434555053711
0	228	0.01	3.6649856567383
0	229	0.01	64.265213012695
0	230	0.01	40.354721069336
0	231	0.01	42.546569824219
0	232	0.01	13.544219970703
0	233	0.01	62.303970336914
0	234	0.01	78.909606933594
0	235	0.01	20.49723815918
0	236	0.01	96.996459960938
0	237	0.01	53.326568603516
0	238	0.01	27.488830566406
0	239	0.01	83.505477905273
0	240	0.01	54.711349487305
0	241	0.01	59.808853149414
0	242	0.01	11.874771118164
0	243	0.01	24.162353515625
0	244	0.01	29.270622253418
0	245	0.01	51.260280609131
0	246	0.01	47.901561737061
0	247	0.01	0.86703872680664
0	248	0.01	24.646472930908
0	249	0.01	19.446746826172
0	250	0.01	110.00233459473
0	251	0.01	44.440353393555
0	252	0.01	36.036460876465
0	253	0.01	43.79642868042
0	254	0.01	88.226760864258
0	255	0.01	33.123817443848
0	256	0.01	30.756004333496
0	257	0.01	78.282165527344
0	258	0.01	62.210891723633
0	259	0.01	36.29362487793
0	260	0.01	63.168731689453
0	261	0.01	51.532379150391
0	262	0.01	36.829345703125
0	263	0.01	65.346290588379
0	264	0.01	47.813163757324
0	265	0.01	32.238471984863
0	266	0.01	34.579284667969
0	267	0.01	46.101238250732
0	268	0.01	40.982879638672
0	269	0.01	24.140884399414
0	270	0.01	6.2568969726562
0	271	0.01	38.570770263672
0	272	0.01	30.788299560547
0	273	0.01	6.4332580566406
0	274	0.01	74.895217895508
0	275	0.01	94.116401672363
0	276	0.01	62.359809875488
0	277	0.01	38.644302368164
0	278	0.01	34.424812316895
0	279	0.01	63.612808227539
0	280	0.01	14.05948638916
1	2	0	5.3096233479653e-310
1	281	0.01	2
1	282	0.01	127.81456756592
1	283	0.01	43.166213989258
1	284	0.01	6.3766174316406
1	285	0.01	82.276153564453
1	286	0.01	1.2129592895508
1	287	0.01	10.172264099121
1	288	0.01	35.470230102539
1	289	0.01	59.273704528809
1	290	0.01	85.93864440918
1	291	0.01	37.824249267578
1	292	0.01	32.799736022949
1	293	0.01	19.311309814453
1	294	0.01	15.766693115234
1	295	0.01	82.67626953125
1	296	0.01	78.996307373047
1	297	0.01	44.720489501953
1	298	0.01	16.963790893555
1	299	0.01	15.779510498047
1	300	0.01	13.636169433594
1	301	0.01	48.513275146484
1	302	0.01	47.196441650391
1	303	0.01	25.034301757812
1	304	0.01	26.284591674805
1	305	0.01	24.636978149414
1	306	0.01	12.006256103516
1	307	0.01	53.582702636719
1	308	0.01	74.720947265625
1	309	0.01	86.666427612305
1	310	0.01	80.810806274414
1	311	0.01	16.932029724121
1	312	0.01	74.638343811035
1	313	0.01	32.0537109375
1	314	0.01	31.468940734863
1	315	0.01	54.321632385254
1	316	0.01	59.764083862305
1	317	0.01	28.721008300781
1	318	0.01	88.176971435547
1	319	0.01	84.01496887207
1	320	0.01	79.791122436523
1	321	0.01	51.923568725586
1	322	0.01	2.1573333740234
1	323	0.01	15.465782165527
1	324	0.01	16.346237182617
1	325	0.01	4.3646621704102
1	326	0.01	58.590515136719
1	327	0.01	93.43083190918
1	328	0.01	1.9049530029297
1	329	0.01	81.294387817383
1	330	0.01	30.185493469238
1	331	0.01	90.086135864258
1	332	0.01	88.900543212891
1	333	0.01	81.25074005127
1	334	0.01	61.387405395508
1	335	0.01	82.118408203125
1	336	0.01	38.612823486328
1	337	0.01	32.906707763672
1	338	0.01	37.360733032227
1	339	0.01	100.94232177734
1	340	0.01	78.901489257812
1	341	0.01	68.408645629883
1	342	0.01	16.698104858398
1	343	0.01	91.659942626953
1	344	0.01	12.348434448242
1	345	0.01	42.452682495117
1	346	0.01	19.339721679688
1	347	0.01	16.258529663086
1	348	0.01	11.935806274414
1	349	0.01	27.453918457031
1	350	0.01	113.92714691162
1	351	0.01	69.598251342773
1	352	0.01	87.063674926758
1	353	0.01	67.650405883789
1	354	0.01	1.1787414550781
1	355	0.01	75.163375854492
1	356	0.01	57.931381225586
1	357	0.01	48.363868713379
1	358	0.01	16.68635559082
1	359	0.01	38.749130249023
1	360	0.01	88.837341308594
1	361	0.01	38.005302429199
1	362	0.01	53.172332763672
1	363	0.01	37.121910095215
1	364	0.01	46.638542175293
1	365	0.01	13.302772521973
1	366	0.01	36.124626159668
1	367	0.01	59.171951293945
1	368	0.01	30.782318115234
1	369	0.01	43.162727355957
1	370	0.01	102.31886291504
1	371	0.01	46.561492919922
1	372	0.01	17.601264953613
1	373	0.01	95.914779663086
1	374	0.01	50.266235351562
1	375	0.01	53.605758666992
1	376	0.01	55.784744262695
1	377	0.01	40.655044555664
1	378	0.01	78.821510314941
1	379	0.01	75.716514587402
1	380	0.01	30.717330932617
1	381	0.01	30.5
1	382	0.01	32.980331420898
1	383	0.01	29.937896728516
1	384	0.01	16.360340118408
1	385	0.01	19.908042907715
1	386	0.01	84.642944335938
1	387	0.01	7.9771347045898
1	388	0.01	37.207359313965
1	389	0.01	49.921943664551
1	390	0.01	37.089050292969
1	391	0.01	57.909530639648
1	392	0.01	18.627182006836
1	393	0.01	115.74433135986
1	394	0.01	33.355499267578
1	395	0.01	67.371063232422
1	396	0.01	25.050941467285
1	397	0.01	65.447738647461
1	398	0.01	8.6263198852539
1	399	0.01	48.887725830078
1	400	0.01	8.7470703125
1	401	0.01	21.023635864258
1	402	0.01	81.207763671875
1	403	0.01	3.0201873779297
1	404	0.01	21.516326904297
1	405	0.01	46.463943481445
1	406	0.01	4.584098815918
1	407	0.01	71.881546020508
1	408	0.01	56.125114440918
1	409	0.01	76.757591247559
1	410	0.01	27.121604919434
1	411	0.01	7.0582656860352
1	412	0.01	50.194671630859
1	413	0.01	23.417343139648
1	414	0.01	49.903831481934
1	415	0.01	41.396575927734
1	416	0.01	30.297672271729
1	417	0.01	67.494354248047
1	418	0.01	48.816795349121
1	419	0.01	14.320327758789
1	420	0.01	54.945655822754
1	421	0.01	9.6294441223145
1	422	0.01	34.311248779297
1	423	0.01	60.468635559082
1	424	0.01	28.66837310791
1	425	0.01	36.116317749023
1	426	0.01	12.136161804199
1	427	0.01	27.424530029297
1	428	0.01	6.2249374389648
1	429	0.01	0.19265747070312
1	430	0.01	71.866767883301
1	431	0.01	47.681259155273
1	432	0.01	53.082801818848
1	433	0.01	50.363571166992
1	434	0.01	30.399551391602
1	435	0.01	68.292816162109
1	436	0.01	55.139999389648
1	437	0.01	98.712905883789
1	438	0.01	18.286506652832
1	439	0.01	52.072326660156
1	440	0.01	9.2708511352539
1	441	0.01	67.997360229492
1	442	0.01	53.080085754395
1	443	0.01	0.83465576171875
1	444	0.01	65.256698608398
1	445	0.01	31.936660766602
1	446	0.01	22.48169708252
1	447	0.01	31.367469787598
1	448	0.01	62.573509216309
1	449	0.01	11.544921875
1	450	0.01	76.222038269043
1	451	0.01	14.485015869141
1	452	0.01	41.278244018555
1	453	0.01	71.827270507812
1	454	0.01	14.324928283691
1	455	0.01	58.754241943359
1	456	0.01	8.957275390625
1	457	0.01	64.988639831543
1	458	0.01	21.665298461914
1	459	0.01	78.933036804199
1	460	0.01	65.193756103516
1	461	0.01	60.499404907227
1	462	0.01	18.507270812988
1	463	0.01	52.179504394531
1	464	0.01	31.7158203125
1	465	0.01	23.424751281738
1	466	0.01	5.2891311645508
1	467	0.01	25.54914855957
1	468	0.01	39.744964599609
1	469	0.01	22.27027130127
1	470	0.01	44.32250213623
1	471	0.01	68.813262939453
1	472	0.01	34.912147521973
1	473	0.01	88.332946777344
1	474	0.01	33.54337310791
1	475	0.01	8.2702026367188
1	476	0.01	25.045310974121
1	477	0.01	17.344009399414
1	478	0.01	70.617431640625
1	479	0.01	39.291397094727
1	480	0.01	49.222221374512
2	3	0	5.3096233479653e-310
2	481	0.01	12.5
2	482	0.01	1.392858505249
2	483	0.01	6.9572296142578
2	484	0.01	1.1090698242188
2	485	0.01	0.085981369018555
2	486	0.01	0.53479385375977
2	487	0.01	5.0973968505859
2	488	0.01	0.92413711547852
2	489	0.01	2.3614196777344
2	490	0.01	0.37124633789062
2	491	0.01	1.3495178222656
2	492	0.01	1.269775390625
2	493	0.01	2.0538177490234
2	494	0.01	0.56622314453125
2	495	0.01	1.706298828125
2	496	0.01	0.04941463470459
2	497	0.01	15.717704772949
2	498	0.01	0.49720764160156
2	499	0.01	0.6671142578125
2	500	0.01	3.1683349609375
2	501	0.01	1.1885528564453
2	502	0.01	0.45949554443359
2	503	0.01	1.0689392089844
2	504	0.01	1.7914886474609
2	505	0.01	0.31622314453125
2	506	0.01	0.45282745361328
2	507	0.01	5.3660888671875
2	508	0.01	0.99584197998047
2	509	0.01	0.43578338623047
2	510	0.01	1.5865783691406
2	511	0.01	1.1202163696289
2	512	0.01	0.83311462402344
2	513	0.01	0.19469451904297
2	514	0.01	5.9684753417969
2	515	0.01	0.28077697753906
2	516	0.01	4.0002288818359
2	517	0.01	0.90316772460938
2	518	0.01	1.0454940795898
2	519	0.01	0.32785797119141
2	520	0.01	3.8951416015625
2	521	0.01	0.53750610351562
2	522	0.01	1.2621002197266
2	523	0.01	1.1464309692383
2	524	0.01	0.14803314208984
2	525	0.01	0.25752639770508
2	526	0.01	6.6870269775391
2	527	0.01	0.69209289550781
2	528	0.01	0.6861572265625
2	529	0.01	3.4596252441406
2	530	0.01	0.3626708984375
2	531	0.01	1.3718719482422
2	532	0.01	2.6415557861328
2	533	0.01	1.130126953125
2	534	0.01	0.59606170654297
2	535	0.01	0.87835311889648
2	536	0.01	0.50041580200195
2	537	0.01	3.2221832275391
2	538	0.01	0.44968414306641
2	539	0.01	0.657958984375
2	540	0.01	3.8003234863281
2	541	0.01	0.21499633789062
2	542	0.01	4.252197265625
2	543	0.01	0.97369384765625
2	544	0.01	0.94325256347656
2	545	0.01	0.49575042724609
2	546	0.01	1.2250518798828
2	547	0.01	0.0452561378479
2	548	0.01	37.352615356445
2	549	0.01	0.20553588867188
2	550	0.01	3.9188995361328
2	551	0.01	0.60739135742188
2	552	0.01	1.0727462768555
2	553	0.01	0.64464569091797
2	554	0.01	0.64602661132812
2	555	0.01	3.2413787841797
2	556	0.01	0.18580055236816
2	557	0.01	3.8252792358398
2	558	0.01	0.50213241577148
2	559	0.01	0.77057647705078
2	560	0.01	1.4527015686035
2	561	0.01	0.39730072021484
2	562	0.01	4.1188354492188
2	563	0.01	1.3254318237305
2	564	0.01	0.58415222167969
2	565	0.01	0.059471130371094
2	566	0.01	12.908966064453
2	567	0.01	0.28892517089844
2	568	0.01	0.162841796875
2	569	0.01	22.861389160156
2	570	0.01	1.0414581298828
2	571	0.01	0.40838623046875
2	572	0.01	1.3409309387207
2	573	0.01	1.0255813598633
2	574	0.01	0.93002319335938
2	575	0.01	1.4830780029297
2	576	0.01	0.86941528320312
2	577	0.01	1.1902847290039
2	578	0.01	0.33892822265625
2	579	0.01	1.3013000488281
2	580	0.01	1.1454010009766
2	581	0.01	425.5
2	582	0.01	97.352661132812
2	583	0.01	19.063232421875
2	584	0.01	91.875305175781
2	585	0.01	97.63671875
2	586	0.01	35.88330078125
2	587	0.01	38.591186523438
2	588	0.01	35.582214355469
2	589	0.01	32.787109375
2	590	0.01	105.10131835938
2	591	0.01	73.294555664062
2	592	0.01	35.043579101562
2	593	0.01	17.136810302734
2	594	0.01	106.79357910156
2	595	0.01	12.840698242188
2	596	0.01	118.25952148438
2	597	0.01	10.859741210938
2	598	0.01	280.716796875
2	599	0.01	80.716796875
2	600	0.01	26.021240234375
2	601	0.01	29.541687011719
2	602	0.01	130.6025390625
2	603	0.01	27.371215820312
2	604	0.01	39.213134765625
2	605	0.01	24.597412109375
2	606	0.01	53.797485351562
2	607	0.01	72.46875
2	608	0.01	50.355590820312
2	609	0.01	33.19775390625
2	610	0.01	18.051025390625
2	611	0.01	186.18310546875
2	612	0.01	14.982421875
2	613	0.01	186.474609375
2	614	0.01	1.7786865234375
2	615	0.01	115.216796875
2	616	0.01	82.350921630859
2	617	0.01	191.03393554688
2	618	0.01	35.567260742188
2	619	0.01	45.5263671875
2	620	0.01	78.311767578125
2	621	0.01	27.136840820312
2	622	0.01	69.0966796875
2	623	0.01	62.76171875
2	624	0.01	39.33154296875
2	625	0.01	27.965454101562
2	626	0.01	65.370361328125
2	627	0.01	96.4736328125
2	628	0.01	10.977661132812
2	629	0.01	111.9482421875
2	630	0.01	58.472900390625
2	631	0.01	41.623168945312
2	632	0.01	14.59521484375
2	633	0.01	115.76794433594
2	634	0.01	24.486694335938
2	635	0.01	55.56201171875
2	636	0.01	66.2431640625
2	637	0.01	91.470458984375
2	638	0.01	35.228271484375
2	639	0.01	61.8671875
2	640	0.01	69.115234375
2	641	0.01	31.8857421875
2	642	0.01	15.529052734375
2	643	0.01	43.77197265625
2	644	0.01	5.62353515625
2	645	0.01	69.677734375
2	646	0.01	365.73828125
2	647	0.01	9.98193359375
2	648	0.01	142.4404296875
2	649	0.01	50.62353515625
2	650	0.01	83.174560546875
2	651	0.01	24.844604492188
2	652	0.01	0.763916015625
2	653	0.01	7.7286376953125
2	654	0.01	342.91479492188
2	655	0.01	7.970947265625
2	656	0.01	48.790649414062
2	657	0.01	491.69384765625
2	658	0.01	8.1414794921875
2	659	0.01	154.11157226562
2	660	0.01	18.523315429688
2	661	0.01	183.66259765625
2	662	0.01	15.945556640625
2	663	0.01	8.6220703125
2	664	0.01	676.91357421875
2	665	0.01	53.46533203125
2	666	0.01	66.613037109375
2	667	0.01	46.566650390625
2	668	0.01	12.94482421875
2	669	0.01	28.192138671875
2	670	0.01	61.2470703125
2	671	0.01	123.09460449219
2	672	0.01	9.2269287109375
2	673	0.01	141.26147460938
2	674	0.01	52.397705078125
2	675	0.01	21.60302734375
2	676	0.01	43.79736328125
2	677	0.01	163.73352050781
2	678	0.01	35.3740234375
2	679	0.01	43.74658203125
2	680	0.01	89.221435546875

